LAMMPS data file via write_data, version 15 Jun 2023, timestep = 0, units = metal

8 atoms
1 atom types

0 5.43 xlo xhi
0 5.43 ylo yhi
0 5.43 zlo zhi

Masses

1 28.0855

Atoms # atomic

1 1 0 0 0 0 0 0
2 1 0 2.715 2.715 0 0 0
3 1 2.715 0 2.715 0 0 0
4 1 2.715 2.715 0 0 0 0
5 1 1.3575 1.3575 1.3575 0 0 0
6 1 1.3575 4.0725 4.0725 0 0 0
7 1 4.0725 1.3575 4.0725 0 0 0
8 1 4.0725 4.0725 1.3575 0 0 0

Velocities

1 0 0 0
2 0 0 0
3 0 0 0
4 0 0 0
5 0 0 0
6 0 0 0
7 0 0 0
8 0 0 0
