Orthorhombic alpha-quartz

   18 atoms
   2 atom types

 -2.456500000000000e+00    2.456500000000000e+00 xlo xhi
 -4.254800000000000e+00    4.254800000000000e+00 ylo yhi
 -2.702600000000000e+00    2.702600000000000e+00 zlo zhi

Masses 

  1  1.599900000000000e+01
  2  2.808600000000000e+01

Atoms

  1 2 -1.154500010000000e+00 -1.999800000000000e+00 -2.702600000000000e+00 
  2 2 -1.465000100000000e-01 -4.254800000000000e+00 -9.006000000000000e-01 
  3 2 1.301499990000000e+00 -2.254800000000000e+00 9.004000000000000e-01 
  4 2 2.309499990000000e+00 2.000000000000000e-04 -9.006000000000000e-01 
  5 2 1.301499990000000e+00 2.254200000000000e+00 -2.702600000000000e+00 
  6 2 3.758499990000000e+00 2.000200000000000e+00 9.004000000000000e-01 
  7 1 -2.157500010000000e+00 -2.494800000000000e+00 -3.859600000000000e+00 
  8 1 2.984999900000000e-01 -1.759800000000000e+00 -3.346600000000000e+00 
  9 1 -1.673500010000000e+00 -6.208000000000000e-01 -2.058600000000000e+00 
  10 1 -1.081500010000000e+00 -3.115800000000000e+00 -1.545600000000000e+00 
  11 1 7.834999900000000e-01 -3.633800000000000e+00 2.564000000000000e-01 
  12 1 1.374499990000000e+00 -1.138800000000000e+00 -2.566000000000000e-01 
  13 1 1.374499990000000e+00 1.138200000000000e+00 -1.545600000000000e+00 
  14 1 7.834999900000000e-01 3.633200000000000e+00 -2.058600000000000e+00 
  15 1 2.984999900000000e-01 1.760200000000000e+00 -3.859600000000000e+00 
  16 1 2.755499990000000e+00 2.495200000000000e+00 -3.346600000000000e+00 
  17 1 3.239499990000000e+00 6.212000000000000e-01 2.564000000000000e-01 
  18 1 3.831499990000000e+00 3.116200000000000e+00 -2.566000000000000e-01 
